<?xml version="1.0" encoding="UTF-8"?>

<!-- generated on 2025-06-19 02:39:09 by Eclipse SUMO sumo Version v1_22_0+1127-914c8c69f4a
<sumoConfiguration xmlns:xsi="http://www.w3.org/2001/XMLSchema-instance" xsi:noNamespaceSchemaLocation="http://sumo.dlr.de/xsd/sumoConfiguration.xsd">

    <input>
        <net-file value="./sumo_files/osm.net_static.xml"/>
        <route-files value="./sumo_files/generated_routes_hourly.rou.xml"/>
        <additional-files value="./sumo_files/osm.poly.xml.gz,./sumo_files/output.add.xml"/>
    </input>

    <output>
        <tripinfo-output value="./sumo_files/tripinfo_fuzzy.xml"/>
        <statistic-output value="./sumo_files/stats_fuzzy.xml"/>
    </output>

    <time>
        <step-length value="1.0"/>
    </time>

    <processing>
        <ignore-route-errors value="true"/>
        <tls.actuated.jam-threshold value="30"/>
    </processing>

    <routing>
        <device.rerouting.adaptation-steps value="18"/>
        <device.rerouting.adaptation-interval value="10"/>
    </routing>

    <report>
        <verbose value="true"/>
        <duration-log.statistics value="true"/>
        <no-step-log value="true"/>
    </report>

    <traci_server>
        <remote-port value="54589"/>
    </traci_server>

    <gui_only>
        <gui-settings-file value="./sumo_files/osm.view.xml"/>
    </gui_only>

</sumoConfiguration>
-->

<meandata xmlns:xsi="http://www.w3.org/2001/XMLSchema-instance" xsi:noNamespaceSchemaLocation="http://sumo.dlr.de/xsd/meandata_file.xsd">
    <interval begin="0.00" end="3600.00" id="wizard_example">
        <edge id="1053072563" sampledSeconds="1731.12" traveltime="13.83" overlapTraveltime="14.35" density="4.45" laneDensity="4.45" occupancy="1.81" waitingTime="0.00" timeLoss="113.07" speed="7.81" speedRelative="0.94" departed="0" arrived="122" entered="122" left="0" laneChangedFrom="0" laneChangedTo="0"/>
        <edge id="1053199270" sampledSeconds="0.00" departed="0" arrived="0" entered="0" left="0" laneChangedFrom="0" laneChangedTo="0"/>
        <edge id="1081353722#1" sampledSeconds="0.00" departed="0" arrived="0" entered="0" left="0" laneChangedFrom="0" laneChangedTo="0"/>
        <edge id="1081353722#2" sampledSeconds="0.00" departed="0" arrived="0" entered="0" left="0" laneChangedFrom="0" laneChangedTo="0"/>
        <edge id="1081353722#3" sampledSeconds="0.00" departed="0" arrived="0" entered="0" left="0" laneChangedFrom="0" laneChangedTo="0"/>
        <edge id="1081353722#4" sampledSeconds="0.00" departed="0" arrived="0" entered="0" left="0" laneChangedFrom="0" laneChangedTo="0"/>
        <edge id="1081353722#5" sampledSeconds="0.00" departed="0" arrived="0" entered="0" left="0" laneChangedFrom="0" laneChangedTo="0"/>
        <edge id="1081353722#6" sampledSeconds="0.00" departed="0" arrived="0" entered="0" left="0" laneChangedFrom="0" laneChangedTo="0"/>
        <edge id="1081353722#7" sampledSeconds="0.00" departed="0" arrived="0" entered="0" left="0" laneChangedFrom="0" laneChangedTo="0"/>
        <edge id="1081353722#8" sampledSeconds="0.00" departed="0" arrived="0" entered="0" left="0" laneChangedFrom="0" laneChangedTo="0"/>
        <edge id="1175780997" sampledSeconds="0.00" departed="0" arrived="0" entered="0" left="0" laneChangedFrom="0" laneChangedTo="0"/>
        <edge id="1296513962#0" sampledSeconds="0.00" departed="0" arrived="0" entered="0" left="0" laneChangedFrom="0" laneChangedTo="0"/>
        <edge id="1296513962#1" sampledSeconds="0.00" departed="0" arrived="0" entered="0" left="0" laneChangedFrom="0" laneChangedTo="0"/>
        <edge id="1296513963" sampledSeconds="0.00" departed="0" arrived="0" entered="0" left="0" laneChangedFrom="0" laneChangedTo="0"/>
        <edge id="1296513964" sampledSeconds="0.00" departed="0" arrived="0" entered="0" left="0" laneChangedFrom="0" laneChangedTo="0"/>
        <edge id="1296513965" sampledSeconds="0.00" departed="0" arrived="0" entered="0" left="0" laneChangedFrom="0" laneChangedTo="0"/>
        <edge id="1296513967" sampledSeconds="0.00" departed="0" arrived="0" entered="0" left="0" laneChangedFrom="0" laneChangedTo="0"/>
        <edge id="1296513968" sampledSeconds="0.00" departed="0" arrived="0" entered="0" left="0" laneChangedFrom="0" laneChangedTo="0"/>
        <edge id="1296513969" sampledSeconds="0.00" departed="0" arrived="0" entered="0" left="0" laneChangedFrom="0" laneChangedTo="0"/>
        <edge id="1296513970" sampledSeconds="0.00" departed="0" arrived="0" entered="0" left="0" laneChangedFrom="0" laneChangedTo="0"/>
        <edge id="1296513971" sampledSeconds="0.00" departed="0" arrived="0" entered="0" left="0" laneChangedFrom="0" laneChangedTo="0"/>
        <edge id="304456533" sampledSeconds="0.00" departed="0" arrived="0" entered="0" left="0" laneChangedFrom="0" laneChangedTo="0"/>
        <edge id="337277951#1" sampledSeconds="2376.45" traveltime="4.78" overlapTraveltime="5.31" density="18.20" laneDensity="9.10" occupancy="3.41" waitingTime="0.00" timeLoss="210.82" speed="7.63" speedRelative="0.92" departed="0" arrived="41" entered="449" left="408" laneChangedFrom="81" laneChangedTo="81"/>
        <edge id="337277951#2" sampledSeconds="263.89" traveltime="0.12" overlapTraveltime="0.65" density="80.55" laneDensity="40.28" occupancy="3.01" waitingTime="0.00" timeLoss="14.97" speed="7.90" speedRelative="0.95" departed="0" arrived="0" entered="408" left="408" laneChangedFrom="0" laneChangedTo="0"/>
        <edge id="337277951#3" sampledSeconds="3723.22" traveltime="8.20" overlapTraveltime="9.15" density="26.66" laneDensity="13.33" occupancy="5.15" waitingTime="768.00" timeLoss="1628.04" speed="4.70" speedRelative="0.56" departed="0" arrived="41" entered="408" left="367" laneChangedFrom="0" laneChangedTo="0"/>
        <edge id="337277951#4" sampledSeconds="2150.77" traveltime="4.79" overlapTraveltime="5.86" density="97.14" laneDensity="48.57" occupancy="16.97" waitingTime="1051.00" timeLoss="1644.23" speed="1.77" speedRelative="0.21" departed="0" arrived="0" entered="367" left="367" laneChangedFrom="0" laneChangedTo="0"/>
        <edge id="337277957#0" sampledSeconds="1679.35" traveltime="13.48" overlapTraveltime="14.00" density="4.42" laneDensity="2.21" occupancy="0.89" waitingTime="0.00" timeLoss="99.64" speed="7.84" speedRelative="0.94" departed="0" arrived="121" entered="121" left="0" laneChangedFrom="8" laneChangedTo="8"/>
        <edge id="337277970#1" sampledSeconds="7613.59" traveltime="17.66" overlapTraveltime="18.66" density="26.72" laneDensity="13.36" occupancy="5.39" waitingTime="1985.00" timeLoss="3504.79" speed="4.47" speedRelative="0.54" departed="0" arrived="41" entered="409" left="365" laneChangedFrom="69" laneChangedTo="69"/>
        <edge id="337277973#0" sampledSeconds="469.15" traveltime="0.64" overlapTraveltime="1.27" density="33.42" laneDensity="16.71" occupancy="3.37" waitingTime="0.00" timeLoss="111.74" speed="6.35" speedRelative="0.76" departed="0" arrived="0" entered="368" left="368" laneChangedFrom="0" laneChangedTo="0"/>
        <edge id="337277973#1" sampledSeconds="6286.83" traveltime="16.23" overlapTraveltime="17.22" density="22.71" laneDensity="11.36" occupancy="4.57" waitingTime="1520.00" timeLoss="2746.31" speed="4.71" speedRelative="0.57" departed="0" arrived="121" entered="368" left="244" laneChangedFrom="71" laneChangedTo="71"/>
        <edge id="337277981#1" sampledSeconds="1841.52" traveltime="5.91" overlapTraveltime="6.44" density="11.14" laneDensity="5.57" occupancy="2.13" waitingTime="0.00" timeLoss="120.51" speed="7.78" speedRelative="0.93" departed="0" arrived="0" entered="286" left="286" laneChangedFrom="81" laneChangedTo="81"/>
        <edge id="337277981#2" sampledSeconds="4250.79" traveltime="13.74" overlapTraveltime="14.88" density="30.25" laneDensity="15.12" occupancy="6.01" waitingTime="1824.00" timeLoss="2761.51" speed="2.91" speedRelative="0.35" departed="0" arrived="0" entered="286" left="285" laneChangedFrom="0" laneChangedTo="0"/>
        <edge id="337277984#0" sampledSeconds="1349.00" traveltime="10.76" overlapTraveltime="11.15" density="3.44" laneDensity="1.72" occupancy="0.70" waitingTime="0.00" timeLoss="125.91" speed="10.14" speedRelative="0.91" departed="0" arrived="122" entered="122" left="0" laneChangedFrom="8" laneChangedTo="8"/>
        <edge id="402944900" sampledSeconds="0.00" departed="0" arrived="0" entered="0" left="0" laneChangedFrom="0" laneChangedTo="0"/>
        <edge id="40668087#1" sampledSeconds="7960.65" traveltime="28.04" overlapTraveltime="28.87" density="20.91" laneDensity="20.91" occupancy="8.66" waitingTime="1823.00" timeLoss="4315.60" speed="3.81" speedRelative="0.46" departed="287" arrived="0" entered="0" left="287" laneChangedFrom="0" laneChangedTo="0"/>
        <edge id="42143912#3" sampledSeconds="0.00" departed="0" arrived="0" entered="0" left="0" laneChangedFrom="0" laneChangedTo="0"/>
        <edge id="42143912#4" sampledSeconds="0.00" departed="0" arrived="0" entered="0" left="0" laneChangedFrom="0" laneChangedTo="0"/>
        <edge id="42143912#5" sampledSeconds="4068.34" traveltime="26.34" overlapTraveltime="27.18" density="25.12" laneDensity="25.12" occupancy="10.35" waitingTime="1884.00" timeLoss="3186.88" speed="1.81" speedRelative="0.22" departed="164" arrived="0" entered="0" left="164" laneChangedFrom="0" laneChangedTo="0"/>
        <edge id="48903210#0" sampledSeconds="0.00" departed="0" arrived="0" entered="0" left="0" laneChangedFrom="0" laneChangedTo="0"/>
        <edge id="48903210#1" sampledSeconds="0.00" departed="0" arrived="0" entered="0" left="0" laneChangedFrom="0" laneChangedTo="0"/>
        <edge id="49217102" sampledSeconds="5830.67" traveltime="28.73" overlapTraveltime="29.60" density="15.37" laneDensity="15.37" occupancy="6.36" waitingTime="1620.00" timeLoss="3251.42" speed="3.70" speedRelative="0.44" departed="205" arrived="0" entered="0" left="205" laneChangedFrom="0" laneChangedTo="0"/>
        <edge id="542428845#0" sampledSeconds="2239.47" traveltime="13.41" overlapTraveltime="13.94" density="5.99" laneDensity="5.99" occupancy="2.42" waitingTime="0.00" timeLoss="145.79" speed="7.76" speedRelative="0.93" departed="0" arrived="162" entered="163" left="0" laneChangedFrom="0" laneChangedTo="0"/>
        <edge id="567060312" sampledSeconds="0.00" departed="0" arrived="0" entered="0" left="0" laneChangedFrom="0" laneChangedTo="0"/>
        <edge id="567060313" sampledSeconds="0.00" departed="0" arrived="0" entered="0" left="0" laneChangedFrom="0" laneChangedTo="0"/>
        <edge id="567060325" sampledSeconds="0.00" departed="0" arrived="0" entered="0" left="0" laneChangedFrom="0" laneChangedTo="0"/>
        <edge id="567060342#0" sampledSeconds="1032.37" traveltime="8.93" overlapTraveltime="9.44" density="8.28" laneDensity="8.28" occupancy="3.36" waitingTime="2.00" timeLoss="516.37" speed="4.11" speedRelative="0.49" departed="123" arrived="0" entered="0" left="123" laneChangedFrom="0" laneChangedTo="0"/>
        <edge id="567060342#1" sampledSeconds="1790.21" traveltime="13.73" overlapTraveltime="14.55" density="7.59" laneDensity="7.59" occupancy="3.04" waitingTime="494.00" timeLoss="748.06" speed="4.79" speedRelative="0.58" departed="0" arrived="0" entered="123" left="123" laneChangedFrom="0" laneChangedTo="0"/>
    </interval>
    <interval begin="3600.00" end="7200.00" id="wizard_example">
        <edge id="1053072563" sampledSeconds="1761.97" traveltime="13.93" overlapTraveltime="14.47" density="4.53" laneDensity="4.53" occupancy="1.84" waitingTime="0.00" timeLoss="100.46" speed="7.75" speedRelative="0.93" departed="0" arrived="123" entered="123" left="0" laneChangedFrom="0" laneChangedTo="0"/>
        <edge id="1053199270" sampledSeconds="0.00" departed="0" arrived="0" entered="0" left="0" laneChangedFrom="0" laneChangedTo="0"/>
        <edge id="1081353722#1" sampledSeconds="0.00" departed="0" arrived="0" entered="0" left="0" laneChangedFrom="0" laneChangedTo="0"/>
        <edge id="1081353722#2" sampledSeconds="0.00" departed="0" arrived="0" entered="0" left="0" laneChangedFrom="0" laneChangedTo="0"/>
        <edge id="1081353722#3" sampledSeconds="0.00" departed="0" arrived="0" entered="0" left="0" laneChangedFrom="0" laneChangedTo="0"/>
        <edge id="1081353722#4" sampledSeconds="0.00" departed="0" arrived="0" entered="0" left="0" laneChangedFrom="0" laneChangedTo="0"/>
        <edge id="1081353722#5" sampledSeconds="0.00" departed="0" arrived="0" entered="0" left="0" laneChangedFrom="0" laneChangedTo="0"/>
        <edge id="1081353722#6" sampledSeconds="0.00" departed="0" arrived="0" entered="0" left="0" laneChangedFrom="0" laneChangedTo="0"/>
        <edge id="1081353722#7" sampledSeconds="0.00" departed="0" arrived="0" entered="0" left="0" laneChangedFrom="0" laneChangedTo="0"/>
        <edge id="1081353722#8" sampledSeconds="0.00" departed="0" arrived="0" entered="0" left="0" laneChangedFrom="0" laneChangedTo="0"/>
        <edge id="1175780997" sampledSeconds="0.00" departed="0" arrived="0" entered="0" left="0" laneChangedFrom="0" laneChangedTo="0"/>
        <edge id="1296513962#0" sampledSeconds="0.00" departed="0" arrived="0" entered="0" left="0" laneChangedFrom="0" laneChangedTo="0"/>
        <edge id="1296513962#1" sampledSeconds="0.00" departed="0" arrived="0" entered="0" left="0" laneChangedFrom="0" laneChangedTo="0"/>
        <edge id="1296513963" sampledSeconds="0.00" departed="0" arrived="0" entered="0" left="0" laneChangedFrom="0" laneChangedTo="0"/>
        <edge id="1296513964" sampledSeconds="0.00" departed="0" arrived="0" entered="0" left="0" laneChangedFrom="0" laneChangedTo="0"/>
        <edge id="1296513965" sampledSeconds="0.00" departed="0" arrived="0" entered="0" left="0" laneChangedFrom="0" laneChangedTo="0"/>
        <edge id="1296513967" sampledSeconds="0.00" departed="0" arrived="0" entered="0" left="0" laneChangedFrom="0" laneChangedTo="0"/>
        <edge id="1296513968" sampledSeconds="0.00" departed="0" arrived="0" entered="0" left="0" laneChangedFrom="0" laneChangedTo="0"/>
        <edge id="1296513969" sampledSeconds="0.00" departed="0" arrived="0" entered="0" left="0" laneChangedFrom="0" laneChangedTo="0"/>
        <edge id="1296513970" sampledSeconds="0.00" departed="0" arrived="0" entered="0" left="0" laneChangedFrom="0" laneChangedTo="0"/>
        <edge id="1296513971" sampledSeconds="0.00" departed="0" arrived="0" entered="0" left="0" laneChangedFrom="0" laneChangedTo="0"/>
        <edge id="304456533" sampledSeconds="0.00" departed="0" arrived="0" entered="0" left="0" laneChangedFrom="0" laneChangedTo="0"/>
        <edge id="337277951#1" sampledSeconds="2457.39" traveltime="4.90" overlapTraveltime="5.45" density="18.82" laneDensity="9.41" occupancy="3.53" waitingTime="0.00" timeLoss="221.05" speed="7.43" speedRelative="0.89" departed="0" arrived="40" entered="453" left="412" laneChangedFrom="83" laneChangedTo="83"/>
        <edge id="337277951#2" sampledSeconds="273.46" traveltime="0.12" overlapTraveltime="0.66" density="83.47" laneDensity="41.74" occupancy="3.12" waitingTime="0.00" timeLoss="15.29" speed="7.69" speedRelative="0.92" departed="0" arrived="0" entered="412" left="412" laneChangedFrom="0" laneChangedTo="0"/>
        <edge id="337277951#3" sampledSeconds="3552.41" traveltime="7.78" overlapTraveltime="8.69" density="25.43" laneDensity="12.72" occupancy="4.90" waitingTime="664.00" timeLoss="1388.17" speed="4.95" speedRelative="0.59" departed="0" arrived="41" entered="411" left="368" laneChangedFrom="0" laneChangedTo="0"/>
        <edge id="337277951#4" sampledSeconds="2166.02" traveltime="4.85" overlapTraveltime="5.90" density="97.83" laneDensity="48.92" occupancy="17.23" waitingTime="1088.00" timeLoss="1644.06" speed="1.75" speedRelative="0.21" departed="0" arrived="0" entered="368" left="367" laneChangedFrom="0" laneChangedTo="0"/>
        <edge id="337277957#0" sampledSeconds="1733.23" traveltime="13.61" overlapTraveltime="14.13" density="4.56" laneDensity="2.28" occupancy="0.92" waitingTime="0.00" timeLoss="109.55" speed="7.77" speedRelative="0.93" departed="0" arrived="123" entered="124" left="0" laneChangedFrom="10" laneChangedTo="10"/>
        <edge id="337277970#1" sampledSeconds="7748.56" traveltime="17.92" overlapTraveltime="18.92" density="27.19" laneDensity="13.60" occupancy="5.48" waitingTime="2039.00" timeLoss="3567.66" speed="4.41" speedRelative="0.53" departed="0" arrived="41" entered="410" left="372" laneChangedFrom="67" laneChangedTo="67"/>
        <edge id="337277973#0" sampledSeconds="475.31" traveltime="0.65" overlapTraveltime="1.30" density="33.85" laneDensity="16.93" occupancy="3.42" waitingTime="0.00" timeLoss="111.50" speed="6.25" speedRelative="0.75" departed="0" arrived="0" entered="367" left="367" laneChangedFrom="0" laneChangedTo="0"/>
        <edge id="337277973#1" sampledSeconds="6364.49" traveltime="16.44" overlapTraveltime="17.46" density="22.99" laneDensity="11.50" occupancy="4.63" waitingTime="1431.00" timeLoss="2755.63" speed="4.65" speedRelative="0.56" departed="0" arrived="122" entered="367" left="244" laneChangedFrom="87" laneChangedTo="87"/>
        <edge id="337277981#1" sampledSeconds="1855.07" traveltime="5.98" overlapTraveltime="6.51" density="11.22" laneDensity="5.61" occupancy="2.15" waitingTime="0.00" timeLoss="123.68" speed="7.70" speedRelative="0.92" departed="0" arrived="0" entered="285" left="285" laneChangedFrom="81" laneChangedTo="81"/>
        <edge id="337277981#2" sampledSeconds="4101.60" traveltime="13.24" overlapTraveltime="14.38" density="29.18" laneDensity="14.59" occupancy="5.79" waitingTime="1760.00" timeLoss="2599.12" speed="3.01" speedRelative="0.36" departed="0" arrived="0" entered="285" left="286" laneChangedFrom="0" laneChangedTo="0"/>
        <edge id="337277984#0" sampledSeconds="1382.58" traveltime="11.09" overlapTraveltime="11.50" density="3.53" laneDensity="1.76" occupancy="0.71" waitingTime="0.00" timeLoss="120.06" speed="9.83" speedRelative="0.88" departed="0" arrived="121" entered="121" left="0" laneChangedFrom="6" laneChangedTo="6"/>
        <edge id="402944900" sampledSeconds="0.00" departed="0" arrived="0" entered="0" left="0" laneChangedFrom="0" laneChangedTo="0"/>
        <edge id="40668087#1" sampledSeconds="8251.15" traveltime="29.10" overlapTraveltime="29.92" density="21.67" laneDensity="21.67" occupancy="8.98" waitingTime="2143.00" timeLoss="4578.30" speed="3.68" speedRelative="0.44" departed="287" arrived="0" entered="0" left="287" laneChangedFrom="0" laneChangedTo="0"/>
        <edge id="42143912#3" sampledSeconds="0.00" departed="0" arrived="0" entered="0" left="0" laneChangedFrom="0" laneChangedTo="0"/>
        <edge id="42143912#4" sampledSeconds="0.00" departed="0" arrived="0" entered="0" left="0" laneChangedFrom="0" laneChangedTo="0"/>
        <edge id="42143912#5" sampledSeconds="4719.04" traveltime="30.67" overlapTraveltime="31.53" density="29.14" laneDensity="29.14" occupancy="12.03" waitingTime="2443.00" timeLoss="3826.60" speed="1.56" speedRelative="0.19" departed="164" arrived="0" entered="0" left="164" laneChangedFrom="0" laneChangedTo="0"/>
        <edge id="48903210#0" sampledSeconds="0.00" departed="0" arrived="0" entered="0" left="0" laneChangedFrom="0" laneChangedTo="0"/>
        <edge id="48903210#1" sampledSeconds="0.00" departed="0" arrived="0" entered="0" left="0" laneChangedFrom="0" laneChangedTo="0"/>
        <edge id="49217102" sampledSeconds="5875.42" traveltime="28.95" overlapTraveltime="29.83" density="15.48" laneDensity="15.48" occupancy="6.41" waitingTime="1587.00" timeLoss="3221.68" speed="3.67" speedRelative="0.44" departed="205" arrived="0" entered="0" left="205" laneChangedFrom="0" laneChangedTo="0"/>
        <edge id="542428845#0" sampledSeconds="2253.46" traveltime="13.42" overlapTraveltime="13.95" density="6.02" laneDensity="6.02" occupancy="2.44" waitingTime="0.00" timeLoss="147.49" speed="7.75" speedRelative="0.93" departed="0" arrived="164" entered="163" left="0" laneChangedFrom="0" laneChangedTo="0"/>
        <edge id="567060312" sampledSeconds="0.00" departed="0" arrived="0" entered="0" left="0" laneChangedFrom="0" laneChangedTo="0"/>
        <edge id="567060313" sampledSeconds="0.00" departed="0" arrived="0" entered="0" left="0" laneChangedFrom="0" laneChangedTo="0"/>
        <edge id="567060325" sampledSeconds="0.00" departed="0" arrived="0" entered="0" left="0" laneChangedFrom="0" laneChangedTo="0"/>
        <edge id="567060342#0" sampledSeconds="1026.40" traveltime="8.88" overlapTraveltime="9.38" density="8.23" laneDensity="8.23" occupancy="3.34" waitingTime="1.00" timeLoss="515.48" speed="4.14" speedRelative="0.50" departed="123" arrived="0" entered="0" left="123" laneChangedFrom="0" laneChangedTo="0"/>
        <edge id="567060342#1" sampledSeconds="2052.44" traveltime="15.83" overlapTraveltime="16.69" density="8.70" laneDensity="8.70" occupancy="3.51" waitingTime="766.00" timeLoss="1020.53" speed="4.18" speedRelative="0.50" departed="0" arrived="0" entered="123" left="123" laneChangedFrom="0" laneChangedTo="0"/>
    </interval>
    <interval begin="7200.00" end="10800.00" id="wizard_example">
        <edge id="1053072563" sampledSeconds="1759.62" traveltime="13.98" overlapTraveltime="14.51" density="4.53" laneDensity="4.53" occupancy="1.84" waitingTime="0.00" timeLoss="117.04" speed="7.73" speedRelative="0.93" departed="0" arrived="122" entered="124" left="0" laneChangedFrom="0" laneChangedTo="0"/>
        <edge id="1053199270" sampledSeconds="0.00" departed="0" arrived="0" entered="0" left="0" laneChangedFrom="0" laneChangedTo="0"/>
        <edge id="1081353722#1" sampledSeconds="0.00" departed="0" arrived="0" entered="0" left="0" laneChangedFrom="0" laneChangedTo="0"/>
        <edge id="1081353722#2" sampledSeconds="0.00" departed="0" arrived="0" entered="0" left="0" laneChangedFrom="0" laneChangedTo="0"/>
        <edge id="1081353722#3" sampledSeconds="0.00" departed="0" arrived="0" entered="0" left="0" laneChangedFrom="0" laneChangedTo="0"/>
        <edge id="1081353722#4" sampledSeconds="0.00" departed="0" arrived="0" entered="0" left="0" laneChangedFrom="0" laneChangedTo="0"/>
        <edge id="1081353722#5" sampledSeconds="0.00" departed="0" arrived="0" entered="0" left="0" laneChangedFrom="0" laneChangedTo="0"/>
        <edge id="1081353722#6" sampledSeconds="0.00" departed="0" arrived="0" entered="0" left="0" laneChangedFrom="0" laneChangedTo="0"/>
        <edge id="1081353722#7" sampledSeconds="0.00" departed="0" arrived="0" entered="0" left="0" laneChangedFrom="0" laneChangedTo="0"/>
        <edge id="1081353722#8" sampledSeconds="0.00" departed="0" arrived="0" entered="0" left="0" laneChangedFrom="0" laneChangedTo="0"/>
        <edge id="1175780997" sampledSeconds="0.00" departed="0" arrived="0" entered="0" left="0" laneChangedFrom="0" laneChangedTo="0"/>
        <edge id="1296513962#0" sampledSeconds="0.00" departed="0" arrived="0" entered="0" left="0" laneChangedFrom="0" laneChangedTo="0"/>
        <edge id="1296513962#1" sampledSeconds="0.00" departed="0" arrived="0" entered="0" left="0" laneChangedFrom="0" laneChangedTo="0"/>
        <edge id="1296513963" sampledSeconds="0.00" departed="0" arrived="0" entered="0" left="0" laneChangedFrom="0" laneChangedTo="0"/>
        <edge id="1296513964" sampledSeconds="0.00" departed="0" arrived="0" entered="0" left="0" laneChangedFrom="0" laneChangedTo="0"/>
        <edge id="1296513965" sampledSeconds="0.00" departed="0" arrived="0" entered="0" left="0" laneChangedFrom="0" laneChangedTo="0"/>
        <edge id="1296513967" sampledSeconds="0.00" departed="0" arrived="0" entered="0" left="0" laneChangedFrom="0" laneChangedTo="0"/>
        <edge id="1296513968" sampledSeconds="0.00" departed="0" arrived="0" entered="0" left="0" laneChangedFrom="0" laneChangedTo="0"/>
        <edge id="1296513969" sampledSeconds="0.00" departed="0" arrived="0" entered="0" left="0" laneChangedFrom="0" laneChangedTo="0"/>
        <edge id="1296513970" sampledSeconds="0.00" departed="0" arrived="0" entered="0" left="0" laneChangedFrom="0" laneChangedTo="0"/>
        <edge id="1296513971" sampledSeconds="0.00" departed="0" arrived="0" entered="0" left="0" laneChangedFrom="0" laneChangedTo="0"/>
        <edge id="304456533" sampledSeconds="0.00" departed="0" arrived="0" entered="0" left="0" laneChangedFrom="0" laneChangedTo="0"/>
        <edge id="337277951#1" sampledSeconds="2427.49" traveltime="4.87" overlapTraveltime="5.41" density="18.59" laneDensity="9.29" occupancy="3.48" waitingTime="0.00" timeLoss="221.58" speed="7.48" speedRelative="0.90" departed="0" arrived="41" entered="449" left="409" laneChangedFrom="82" laneChangedTo="82"/>
        <edge id="337277951#2" sampledSeconds="269.58" traveltime="0.12" overlapTraveltime="0.66" density="82.29" laneDensity="41.15" occupancy="3.08" waitingTime="0.00" timeLoss="14.91" speed="7.76" speedRelative="0.93" departed="0" arrived="0" entered="409" left="409" laneChangedFrom="0" laneChangedTo="0"/>
        <edge id="337277951#3" sampledSeconds="3632.35" traveltime="7.92" overlapTraveltime="8.86" density="26.00" laneDensity="13.00" occupancy="5.01" waitingTime="723.00" timeLoss="1482.90" speed="4.85" speedRelative="0.58" departed="0" arrived="41" entered="410" left="371" laneChangedFrom="0" laneChangedTo="0"/>
        <edge id="337277951#4" sampledSeconds="2314.71" traveltime="5.16" overlapTraveltime="6.23" density="104.55" laneDensity="52.27" occupancy="18.51" waitingTime="1208.00" timeLoss="1792.33" speed="1.66" speedRelative="0.20" departed="0" arrived="0" entered="371" left="372" laneChangedFrom="0" laneChangedTo="0"/>
        <edge id="337277957#0" sampledSeconds="1741.25" traveltime="13.76" overlapTraveltime="14.30" density="4.58" laneDensity="2.29" occupancy="0.93" waitingTime="0.00" timeLoss="96.53" speed="7.68" speedRelative="0.92" departed="0" arrived="124" entered="123" left="0" laneChangedFrom="16" laneChangedTo="16"/>
        <edge id="337277970#1" sampledSeconds="7311.70" traveltime="16.89" overlapTraveltime="17.87" density="25.66" laneDensity="12.83" occupancy="5.16" waitingTime="1728.00" timeLoss="3134.43" speed="4.66" speedRelative="0.56" departed="0" arrived="41" entered="410" left="367" laneChangedFrom="52" laneChangedTo="52"/>
        <edge id="337277973#0" sampledSeconds="483.77" traveltime="0.66" overlapTraveltime="1.30" density="34.46" laneDensity="17.23" occupancy="3.47" waitingTime="0.00" timeLoss="116.27" speed="6.21" speedRelative="0.75" departed="0" arrived="0" entered="371" left="371" laneChangedFrom="0" laneChangedTo="0"/>
        <edge id="337277973#1" sampledSeconds="6081.07" traveltime="15.61" overlapTraveltime="16.54" density="21.97" laneDensity="10.98" occupancy="4.42" waitingTime="1240.00" timeLoss="2446.64" speed="4.90" speedRelative="0.59" departed="0" arrived="124" entered="371" left="249" laneChangedFrom="79" laneChangedTo="79"/>
        <edge id="337277981#1" sampledSeconds="1892.53" traveltime="5.99" overlapTraveltime="6.53" density="11.45" laneDensity="5.73" occupancy="2.19" waitingTime="0.00" timeLoss="121.29" speed="7.68" speedRelative="0.92" departed="0" arrived="0" entered="290" left="290" laneChangedFrom="84" laneChangedTo="84"/>
        <edge id="337277981#2" sampledSeconds="4546.88" traveltime="14.54" overlapTraveltime="15.71" density="32.35" laneDensity="16.18" occupancy="6.45" waitingTime="2036.00" timeLoss="3014.76" speed="2.75" speedRelative="0.33" departed="0" arrived="0" entered="290" left="287" laneChangedFrom="0" laneChangedTo="0"/>
        <edge id="337277984#0" sampledSeconds="1408.90" traveltime="10.98" overlapTraveltime="11.38" density="3.60" laneDensity="1.80" occupancy="0.73" waitingTime="0.00" timeLoss="118.01" speed="9.93" speedRelative="0.89" departed="0" arrived="125" entered="125" left="0" laneChangedFrom="6" laneChangedTo="6"/>
        <edge id="402944900" sampledSeconds="0.00" departed="0" arrived="0" entered="0" left="0" laneChangedFrom="0" laneChangedTo="0"/>
        <edge id="40668087#1" sampledSeconds="8255.37" traveltime="29.10" overlapTraveltime="29.93" density="21.68" laneDensity="21.68" occupancy="8.98" waitingTime="2105.00" timeLoss="4586.41" speed="3.67" speedRelative="0.44" departed="287" arrived="0" entered="0" left="287" laneChangedFrom="0" laneChangedTo="0"/>
        <edge id="42143912#3" sampledSeconds="0.00" departed="0" arrived="0" entered="0" left="0" laneChangedFrom="0" laneChangedTo="0"/>
        <edge id="42143912#4" sampledSeconds="0.00" departed="0" arrived="0" entered="0" left="0" laneChangedFrom="0" laneChangedTo="0"/>
        <edge id="42143912#5" sampledSeconds="4043.25" traveltime="26.18" overlapTraveltime="27.02" density="24.96" laneDensity="24.96" occupancy="10.29" waitingTime="1902.00" timeLoss="3150.45" speed="1.82" speedRelative="0.22" departed="164" arrived="0" entered="0" left="164" laneChangedFrom="0" laneChangedTo="0"/>
        <edge id="48903210#0" sampledSeconds="0.00" departed="0" arrived="0" entered="0" left="0" laneChangedFrom="0" laneChangedTo="0"/>
        <edge id="48903210#1" sampledSeconds="0.00" departed="0" arrived="0" entered="0" left="0" laneChangedFrom="0" laneChangedTo="0"/>
        <edge id="49217102" sampledSeconds="5910.49" traveltime="29.15" overlapTraveltime="30.01" density="15.58" laneDensity="15.58" occupancy="6.45" waitingTime="1674.00" timeLoss="3267.77" speed="3.65" speedRelative="0.44" departed="205" arrived="0" entered="0" left="205" laneChangedFrom="0" laneChangedTo="0"/>
        <edge id="542428845#0" sampledSeconds="2262.49" traveltime="13.42" overlapTraveltime="13.95" density="6.05" laneDensity="6.05" occupancy="2.45" waitingTime="0.00" timeLoss="141.48" speed="7.75" speedRelative="0.93" departed="0" arrived="164" entered="164" left="0" laneChangedFrom="0" laneChangedTo="0"/>
        <edge id="567060312" sampledSeconds="0.00" departed="0" arrived="0" entered="0" left="0" laneChangedFrom="0" laneChangedTo="0"/>