<?xml version="1.0" encoding="UTF-8"?>

<!-- generated on 2025-06-03 21:42:49 by Eclipse SUMO sumo Version v1_22_0+1127-914c8c69f4a
<sumoConfiguration xmlns:xsi="http://www.w3.org/2001/XMLSchema-instance" xsi:noNamespaceSchemaLocation="http://sumo.dlr.de/xsd/sumoConfiguration.xsd">

    <input>
        <net-file value="./sumo_files/osm.net_static.xml"/>
        <route-files value="./sumo_files/generated_routes_hourly.rou.xml"/>
        <additional-files value="./sumo_files/osm.poly.xml.gz,./sumo_files/output.add.xml"/>
    </input>

    <output>
        <tripinfo-output value="./sumo_files/tripinfo_fuzzy.xml"/>
        <statistic-output value="./sumo_files/stats_fuzzy.xml"/>
    </output>

    <processing>
        <ignore-route-errors value="true"/>
        <tls.actuated.jam-threshold value="30"/>
    </processing>

    <routing>
        <device.rerouting.adaptation-steps value="18"/>
        <device.rerouting.adaptation-interval value="10"/>
    </routing>

    <report>
        <verbose value="true"/>
        <duration-log.statistics value="true"/>
        <no-step-log value="true"/>
    </report>

    <traci_server>
        <remote-port value="56013"/>
    </traci_server>

    <gui_only>
        <gui-settings-file value="./sumo_files/osm.view.xml"/>
    </gui_only>

</sumoConfiguration>
-->

<tripinfos xmlns:xsi="http://www.w3.org/2001/XMLSchema-instance" xsi:noNamespaceSchemaLocation="http://sumo.dlr.de/xsd/tripinfo_file.xsd">
    <tripinfo id="f1.0" depart="0.00" departLane="40668087#1_0" departPos="5.10" departSpeed="0.00" departDelay="0.00" arrival="41.00" arrivalLane="542428845#0_0" arrivalPos="103.93" arrivalSpeed="8.55" duration="41.00" routeLength="216.25" waitingTime="4.00" waitingCount="1" stopTime="0.00" timeLoss="15.87" rerouteNo="0" devices="tripinfo_f1.0 routing_f1.0" vType="car" speedFactor="1.06" vaporized=""/>
    <tripinfo id="f8.0" depart="0.00" departLane="49217102_0" departPos="5.10" departSpeed="0.00" departDelay="0.00" arrival="42.00" arrivalLane="337277951#3_0" arrivalPos="38.80" arrivalSpeed="7.24" duration="42.00" routeLength="203.36" waitingTime="2.00" waitingCount="1" stopTime="0.00" timeLoss="13.60" rerouteNo="1" devices="tripinfo_f8.0 routing_f8.0" vType="car" speedFactor="0.89" vaporized=""/>
    <tripinfo id="f6.0" depart="22.00" departLane="40668087#1_0" departPos="5.10" departSpeed="0.00" departDelay="22.00" arrival="57.00" arrivalLane="337277970#1_0" arrivalPos="79.16" arrivalSpeed="6.71" duration="35.00" routeLength="197.31" waitingTime="0.00" waitingCount="0" stopTime="0.00" timeLoss="5.84" rerouteNo="0" devices="tripinfo_f6.0 routing_f6.0" vType="car" speedFactor="0.83" vaporized=""/>
    <tripinfo id="f2.0" depart="4.00" departLane="40668087#1_0" departPos="5.10" departSpeed="0.00" departDelay="4.00" arrival="61.00" arrivalLane="337277957#0_0" arrivalPos="105.61" arrivalSpeed="7.40" duration="57.00" routeLength="318.06" waitingTime="0.00" waitingCount="0" stopTime="0.00" timeLoss="15.41" rerouteNo="1" devices="tripinfo_f2.0 routing_f2.0" vType="car" speedFactor="0.94" vaporized=""/>
    <tripinfo id="f17.0" depart="0.00" departLane="567060342#0_0" departPos="5.10" departSpeed="0.00" departDelay="0.00" arrival="63.00" arrivalLane="337277984#0_0" arrivalPos="108.85" arrivalSpeed="9.27" duration="63.00" routeLength="320.63" waitingTime="11.00" waitingCount="1" stopTime="0.00" timeLoss="22.38" rerouteNo="1" devices="tripinfo_f17.0 routing_f17.0" vType="car" speedFactor="0.88" vaporized=""/>
    <tripinfo id="f14.0" depart="5.00" departLane="42143912#5_0" departPos="5.10" departSpeed="0.00" departDelay="5.00" arrival="65.00" arrivalLane="542428845#0_0" arrivalPos="103.93" arrivalSpeed="9.13" duration="60.00" routeLength="269.42" waitingTime="11.00" waitingCount="2" stopTime="0.00" timeLoss="30.75" rerouteNo="1" devices="tripinfo_f14.0 routing_f14.0" vType="car" speedFactor="1.12" vaporized=""/>
    <tripinfo id="f9.0" depart="4.00" departLane="49217102_0" departPos="5.10" departSpeed="0.00" departDelay="4.00" arrival="84.00" arrivalLane="1053072563_0" arrivalPos="107.94" arrivalSpeed="7.80" duration="80.00" routeLength="331.15" waitingTime="17.00" waitingCount="1" stopTime="0.00" timeLoss="36.64" rerouteNo="1" devices="tripinfo_f9.0 routing_f9.0" vType="car" speedFactor="0.94" vaporized=""/>
    <tripinfo id="f3.0" depart="8.00" departLane="40668087#1_0" departPos="5.10" departSpeed="0.00" departDelay="8.00" arrival="86.00" arrivalLane="1053072563_0" arrivalPos="107.94" arrivalSpeed="7.97" duration="78.00" routeLength="422.51" waitingTime="7.00" waitingCount="1" stopTime="0.00" timeLoss="26.79" rerouteNo="1" devices="tripinfo_f3.0 routing_f3.0" vType="car" speedFactor="1.01" vaporized=""/>
    <tripinfo id="f10.0" depart="9.00" departLane="49217102_0" departPos="5.10" departSpeed="0.00" departDelay="9.00" arrival="86.00" arrivalLane="337277973#1_0" arrivalPos="76.89" arrivalSpeed="3.93" duration="77.00" routeLength="299.00" waitingTime="14.00" waitingCount="1" stopTime="0.00" timeLoss="34.44" rerouteNo="1" devices="tripinfo_f10.0 routing_f10.0" vType="car" speedFactor="0.86" vaporized=""/>
    <tripinfo id="f4.0" depart="13.00" departLane="40668087#1_0" departPos="5.10" departSpeed="0.00" departDelay="13.00" arrival="95.00" arrivalLane="337277973#1_1" arrivalPos="76.89" arrivalSpeed="6.20" duration="82.00" routeLength="390.36" waitingTime="9.00" waitingCount="1" stopTime="0.00" timeLoss="37.92" rerouteNo="1" devices="tripinfo_f4.0 routing_f4.0" vType="car" speedFactor="1.08" vaporized=""/>
    <tripinfo id="f7.0" depart="27.00" departLane="40668087#1_0" departPos="5.10" departSpeed="0.00" departDelay="27.00" arrival="100.00" arrivalLane="337277951#1_1" arrivalPos="36.28" arrivalSpeed="8.23" duration="73.00" routeLength="245.01" waitingTime="23.00" waitingCount="2" stopTime="0.00" timeLoss="43.74" rerouteNo="1" devices="tripinfo_f7.0 routing_f7.0" vType="car" speedFactor="1.05" vaporized=""/>
    <tripinfo id="f11.0" depart="14.00" departLane="49217102_0" departPos="5.10" departSpeed="0.00" departDelay="14.00" arrival="104.00" arrivalLane="337277984#0_0" arrivalPos="108.85" arrivalSpeed="11.99" duration="90.00" routeLength="425.04" waitingTime="13.00" waitingCount="1" stopTime="0.00" timeLoss="45.46" rerouteNo="1" devices="tripinfo_f11.0 routing_f11.0" vType="car" speedFactor="1.09" vaporized=""/>
    <tripinfo id="f13.0" depart="0.00" departLane="42143912#5_0" departPos="5.10" departSpeed="0.00" departDelay="0.00" arrival="104.00" arrivalLane="337277957#0_0" arrivalPos="105.61" arrivalSpeed="8.61" duration="104.00" routeLength="362.40" waitingTime="34.00" waitingCount="3" stopTime="0.00" timeLoss="62.22" rerouteNo="1" devices="tripinfo_f13.0 routing_f13.0" vType="car" speedFactor="1.05" vaporized=""/>
    <tripinfo id="f18.0" depart="4.00" departLane="567060342#0_0" departPos="5.10" departSpeed="0.00" departDelay="4.00" arrival="108.00" arrivalLane="542428845#0_0" arrivalPos="103.93" arrivalSpeed="7.68" duration="104.00" routeLength="419.50" waitingTime="29.00" waitingCount="2" stopTime="0.00" timeLoss="49.87" rerouteNo="1" devices="tripinfo_f18.0 routing_f18.0" vType="car" speedFactor="0.94" vaporized=""/>
    <tripinfo id="f17.1" depart="70.00" departLane="567060342#0_0" departPos="5.10" departSpeed="0.00" departDelay="0.77" arrival="108.00" arrivalLane="337277984#0_1" arrivalPos="108.85" arrivalSpeed="12.91" duration="38.00" routeLength="320.63" waitingTime="0.00" waitingCount="0" stopTime="0.00" timeLoss="8.18" rerouteNo="1" devices="tripinfo_f17.1 routing_f17.1" vType="car" speedFactor="1.17" vaporized=""/>
    <tripinfo id="f5.0" depart="18.00" departLane="40668087#1_0" departPos="5.10" departSpeed="0.00" departDelay="18.00" arrival="109.00" arrivalLane="337277984#0_0" arrivalPos="108.85" arrivalSpeed="11.41" duration="91.00" routeLength="516.40" waitingTime="8.00" waitingCount="1" stopTime="0.00" timeLoss="33.90" rerouteNo="1" devices="tripinfo_f5.0 routing_f5.0" vType="car" speedFactor="1.03" vaporized=""/>
    <tripinfo id="f12.0" depart="18.00" departLane="49217102_0" departPos="5.10" departSpeed="0.00" departDelay="18.00" arrival="120.00" arrivalLane="542428845#0_0" arrivalPos="103.93" arrivalSpeed="8.41" duration="102.00" routeLength="523.91" waitingTime="14.00" waitingCount="2" stopTime="0.00" timeLoss="40.20" rerouteNo="1" devices="tripinfo_f12.0 routing_f12.0" vType="car" speedFactor="1.03" vaporized=""/>
    <tripinfo id="f15.0" depart="9.00" departLane="42143912#5_0" departPos="5.10" departSpeed="0.00" departDelay="9.00" arrival="126.00" arrivalLane="1053072563_0" arrivalPos="107.94" arrivalSpeed="8.01" duration="117.00" routeLength="466.85" waitingTime="26.00" waitingCount="4" stopTime="0.00" timeLoss="60.13" rerouteNo="1" devices="tripinfo_f15.0 routing_f15.0" vType="car" speedFactor="0.99" vaporized=""/>
    <tripinfo id="f8.1" depart="70.00" departLane="49217102_0" departPos="5.10" departSpeed="0.00" departDelay="0.77" arrival="128.00" arrivalLane="337277951#3_0" arrivalPos="38.80" arrivalSpeed="6.77" duration="58.00" routeLength="203.36" waitingTime="18.00" waitingCount="1" stopTime="0.00" timeLoss="27.95" rerouteNo="1" devices="tripinfo_f8.1 routing_f8.1" vType="car" speedFactor="0.83" vaporized=""/>
    <tripinfo id="f16.0" depart="15.00" departLane="42143912#5_0" departPos="5.10" departSpeed="0.00" departDelay="15.00" arrival="129.00" arrivalLane="337277973#1_0" arrivalPos="76.89" arrivalSpeed="4.75" duration="114.00" routeLength="434.70" waitingTime="20.00" waitingCount="4" stopTime="0.00" timeLoss="56.75" rerouteNo="1" devices="tripinfo_f16.0 routing_f16.0" vType="car" speedFactor="0.93" vaporized=""/>
    <tripinfo id="f6.1" depart="84.00" departLane="40668087#1_0" departPos="5.10" departSpeed="0.00" departDelay="14.77" arrival="137.00" arrivalLane="337277970#1_0" arrivalPos="79.16" arrivalSpeed="4.78" duration="53.00" routeLength="197.31" waitingTime="11.00" waitingCount="1" stopTime="0.00" timeLoss="28.64" rerouteNo="0" devices="tripinfo_f6.1 routing_f6.1" vType="car" speedFactor="0.97" vaporized=""/>
    <tripinfo id="f7.1" depart="88.00" departLane="40668087#1_0" departPos="5.10" departSpeed="0.00" departDelay="18.77" arrival="148.00" arrivalLane="337277951#1_1" arrivalPos="36.28" arrivalSpeed="7.29" duration="60.00" routeLength="245.01" waitingTime="9.00" waitingCount="1" stopTime="0.00" timeLoss="26.25" rerouteNo="1" devices="tripinfo_f7.1 routing_f7.1" vType="car" speedFactor="0.89" vaporized=""/>
    <tripinfo id="f14.1" depart="74.00" departLane="42143912#5_0" departPos="5.10" departSpeed="0.00" departDelay="4.77" arrival="149.00" arrivalLane="542428845#0_0" arrivalPos="103.93" arrivalSpeed="9.72" duration="75.00" routeLength="269.42" waitingTime="24.00" waitingCount="2" stopTime="0.00" timeLoss="46.67" rerouteNo="1" devices="tripinfo_f14.1 routing_f14.1" vType="car" speedFactor="1.18" vaporized=""/>
    <tripinfo id="f19.0" depart="9.00" departLane="567060342#0_0" departPos="5.10" departSpeed="0.00" departDelay="9.00" arrival="150.00" arrivalLane="337277957#0_1" arrivalPos="105.61" arrivalSpeed="7.31" duration="141.00" routeLength="512.48" waitingTime="48.00" waitingCount="3" stopTime="0.00" timeLoss="74.95" rerouteNo="1" devices="tripinfo_f19.0 routing_f19.0" vType="car" speedFactor="0.94" vaporized=""/>
    <tripinfo id="f13.1" depart="70.00" departLane="42143912#5_0" departPos="5.10" departSpeed="0.00" departDelay="0.77" arrival="150.00" arrivalLane="337277957#0_0" arrivalPos="105.61" arrivalSpeed="7.49" duration="80.00" routeLength="362.40" waitingTime="21.00" waitingCount="1" stopTime="0.00" timeLoss="32.32" rerouteNo="1" devices="tripinfo_f13.1 routing_f13.1" vType="car" speedFactor="0.93" vaporized=""/>
    <tripinfo id="f2.1" depart="70.00" departLane="40668087#1_0" departPos="5.10" departSpeed="0.00" departDelay="0.77" arrival="152.00" arrivalLane="337277957#0_0" arrivalPos="105.61" arrivalSpeed="8.63" duration="82.00" routeLength="318.06" waitingTime="25.00" waitingCount="2" stopTime="0.00" timeLoss="48.22" rerouteNo="1" devices="tripinfo_f2.1 routing_f2.1" vType="car" speedFactor="1.16" vaporized=""/>
    <tripinfo id="f18.1" depart="75.00" departLane="567060342#0_0" departPos="5.10" departSpeed="0.00" departDelay="5.77" arrival="160.00" arrivalLane="542428845#0_0" arrivalPos="103.93" arrivalSpeed="7.90" duration="85.00" routeLength="419.50" waitingTime="20.00" waitingCount="1" stopTime="0.00" timeLoss="33.44" rerouteNo="1" devices="tripinfo_f18.1 routing_f18.1" vType="car" speedFactor="0.99" vaporized=""/>
    <tripinfo id="f10.1" depart="79.00" departLane="49217102_0" departPos="5.10" departSpeed="0.00" departDelay="9.77" arrival="166.00" arrivalLane="337277973#1_1" arrivalPos="76.89" arrivalSpeed="7.15" duration="87.00" routeLength="299.00" waitingTime="30.00" waitingCount="2" stopTime="0.00" timeLoss="47.14" rerouteNo="1" devices="tripinfo_f10.1 routing_f10.1" vType="car" speedFactor="0.92" vaporized=""/>
    <tripinfo id="f8.2" depart="139.00" departLane="49217102_0" departPos="5.10" departSpeed="0.00" departDelay="0.54" arrival="170.00" arrivalLane="337277951#3_0" arrivalPos="38.80" arrivalSpeed="7.86" duration="31.00" routeLength="203.36" waitingTime="0.00" waitingCount="0" stopTime="0.00" timeLoss="5.49" rerouteNo="1" devices="tripinfo_f8.2 routing_f8.2" vType="car" speedFactor="0.96" vaporized=""/>
    <tripinfo id="f9.1" depart="74.00" departLane="49217102_0" departPos="5.10" departSpeed="0.00" departDelay="4.77" arrival="171.00" arrivalLane="1053072563_0" arrivalPos="107.94" arrivalSpeed="7.24" duration="97.00" routeLength="331.15" waitingTime="33.00" waitingCount="2" stopTime="0.00" timeLoss="50.78" rerouteNo="1" devices="tripinfo_f9.1 routing_f9.1" vType="car" speedFactor="0.87" vaporized=""/>
    <tripinfo id="f4.1" depart="75.00" departLane="40668087#1_0" departPos="5.10" departSpeed="0.00" departDelay="5.77" arrival="172.00" arrivalLane="337277973#1_1" arrivalPos="76.89" arrivalSpeed="8.37" duration="97.00" routeLength="390.36" waitingTime="22.00" waitingCount="3" stopTime="0.00" timeLoss="50.38" rerouteNo="1" devices="tripinfo_f4.1 routing_f4.1" vType="car" speedFactor="1.02" vaporized=""/>
    <tripinfo id="f15.1" depart="79.00" departLane="42143912#5_0" departPos="5.10" departSpeed="0.00" departDelay="9.77" arrival="173.00" arrivalLane="1053072563_0" arrivalPos="107.94" arrivalSpeed="8.79" duration="94.00" routeLength="466.85" waitingTime="20.00" waitingCount="2" stopTime="0.00" timeLoss="44.57" rerouteNo="1" devices="tripinfo_f15.1 routing_f15.1" vType="car" speedFactor="1.15" vaporized=""/>
    <tripinfo id="f16.1" depart="83.00" departLane="42143912#5_0" departPos="5.10" departSpeed="0.00" departDelay="13.77" arrival="177.00" arrivalLane="337277973#1_1" arrivalPos="76.89" arrivalSpeed="8.23" duration="94.00" routeLength="434.70" waitingTime="16.00" waitingCount="1" stopTime="0.00" timeLoss="41.44" rerouteNo="1" devices="tripinfo_f16.1 routing_f16.1" vType="car" speedFactor="1.01" vaporized=""/>
    <tripinfo id="f11.1" depart="84.00" departLane="49217102_0" departPos="5.10" departSpeed="0.00" departDelay="14.77" arrival="181.00" arrivalLane="337277984#0_0" arrivalPos="108.85" arrivalSpeed="10.46" duration="97.00" routeLength="425.04" waitingTime="26.00" waitingCount="2" stopTime="0.00" timeLoss="46.50" rerouteNo="1" devices="tripinfo_f11.1 routing_f11.1" vType="car" speedFactor="0.95" vaporized=""/>
    <tripinfo id="f5.1" depart="80.00" departLane="40668087#1_0" departPos="5.10" departSpeed="0.00" departDelay="10.77" arrival="187.00" arrivalLane="337277984#0_0" arrivalPos="108.85" arrivalSpeed="11.11" duration="107.00" routeLength="516.40" waitingTime="17.00" waitingCount="2" stopTime="0.00" timeLoss="48.30" rerouteNo="1" devices="tripinfo_f5.1 routing_f5.1" vType="car" speedFactor="1.01" vaporized=""/>
    <tripinfo id="f14.2" depart="144.00" departLane="42143912#5_0" departPos="5.10" departSpeed="0.00" departDelay="5.54" arrival="188.00" arrivalLane="542428845#0_0" arrivalPos="103.93" arrivalSpeed="7.17" duration="44.00" routeLength="269.42" waitingTime="0.00" waitingCount="0" stopTime="0.00" timeLoss="7.15" rerouteNo="1" devices="tripinfo_f14.2 routing_f14.2" vType="car" speedFactor="0.90" vaporized=""/>
    <tripinfo id="f19.1" depart="79.00" departLane="567060342#0_0" departPos="5.10" departSpeed="0.00" departDelay="9.77" arrival="193.00" arrivalLane="337277957#0_0" arrivalPos="105.61" arrivalSpeed="8.43" duration="114.00" routeLength="512.48" waitingTime="32.00" waitingCount="2" stopTime="0.00" timeLoss="53.42" rerouteNo="1" devices="tripinfo_f19.1 routing_f19.1" vType="car" speedFactor="1.02" vaporized=""/>
    <tripinfo id="f12.1" depart="88.00" departLane="49217102_0" departPos="5.10" departSpeed="0.00" departDelay="18.77" arrival="195.00" arrivalLane="542428845#0_0" arrivalPos="103.93" arrivalSpeed="9.03" duration="107.00" routeLength="523.91" waitingTime="21.00" waitingCount="2" stopTime="0.00" timeLoss="50.24" rerouteNo="1" devices="tripinfo_f12.1 routing_f12.1" vType="car" speedFactor="1.13" vaporized=""/>
    <tripinfo id="f2.2" depart="139.00" departLane="40668087#1_0" departPos="5.10" departSpeed="0.00" departDelay="0.54" arrival="196.00" arrivalLane="337277957#0_0" arrivalPos="105.61" arrivalSpeed="7.89" duration="57.00" routeLength="318.06" waitingTime="4.00" waitingCount="1" stopTime="0.00" timeLoss="17.28" rerouteNo="1" devices="tripinfo_f2.2 routing_f2.2" vType="car" speedFactor="0.97" vaporized=""/>
    <tripinfo id="f13.2" depart="139.00" departLane="42143912#5_0" departPos="5.10" departSpeed="0.00" departDelay="0.54" arrival="201.00" arrivalLane="337277957#0_0" arrivalPos="105.61" arrivalSpeed="8.13" duration="62.00" routeLength="362.40" waitingTime="4.00" waitingCount="1" stopTime="0.00" timeLoss="17.64" rerouteNo="1" devices="tripinfo_f13.2 routing_f13.2" vType="car" speedFactor="1.00" vaporized=""/>
    <tripinfo id="f6.2" depart="154.00" departLane="40668087#1_0" departPos="5.10" departSpeed="0.00" departDelay="15.54" arrival="207.00" arrivalLane="337277970#1_0" arrivalPos="79.16" arrivalSpeed="7.19" duration="53.00" routeLength="197.31" waitingTime="15.00" waitingCount="1" stopTime="0.00" timeLoss="26.55" rerouteNo="0" devices="tripinfo_f6.2 routing_f6.2" vType="car" speedFactor="0.90" vaporized=""/>
    <tripinfo id="f9.2" depart="144.00" departLane="49217102_0" departPos="5.10" departSpeed="0.00" departDelay="5.54" arrival="212.00" arrivalLane="1053072563_0" arrivalPos="107.94" arrivalSpeed="8.61" duration="68.00" routeLength="331.15" waitingTime="17.00" waitingCount="1" stopTime="0.00" timeLoss="31.22" rerouteNo="1" devices="tripinfo_f9.2 routing_f9.2" vType="car" speedFactor="1.09" vaporized=""/>
    <tripinfo id="f10.2" depart="149.00" departLane="49217102_0" departPos="5.10" departSpeed="0.00" departDelay="10.54" arrival="215.00" arrivalLane="337277973#1_0" arrivalPos="76.89" arrivalSpeed="4.70" duration="66.00" routeLength="299.00" waitingTime="13.00" waitingCount="2" stopTime="0.00" timeLoss="31.02" rerouteNo="1" devices="tripinfo_f10.2 routing_f10.2" vType="car" speedFactor="1.04" vaporized=""/>
    <tripinfo id="f4.2" depart="144.00" departLane="40668087#1_0" departPos="5.10" departSpeed="0.00" departDelay="5.54" arrival="220.00" arrivalLane="337277973#1_1" arrivalPos="76.89" arrivalSpeed="5.65" duration="76.00" routeLength="390.36" waitingTime="4.00" waitingCount="1" stopTime="0.00" timeLoss="35.84" rerouteNo="1" devices="tripinfo_f4.2 routing_f4.2" vType="car" speedFactor="1.18" vaporized=""/>
    <tripinfo id="f15.2" depart="148.00" departLane="42143912#5_0" departPos="5.10" departSpeed="0.00" departDelay="9.54" arrival="221.00" arrivalLane="1053072563_0" arrivalPos="107.94" arrivalSpeed="7.25" duration="73.00" routeLength="466.85" waitingTime="1.00" waitingCount="1" stopTime="0.00" timeLoss="8.41" rerouteNo="1" devices="tripinfo_f15.2 routing_f15.2" vType="car" speedFactor="0.88" vaporized=""/>
    <tripinfo id="f7.2" depart="158.00" departLane="40668087#1_0" departPos="5.10" departSpeed="0.00" departDelay="19.54" arrival="229.00" arrivalLane="337277951#1_1" arrivalPos="36.28" arrivalSpeed="8.23" duration="71.00" routeLength="245.01" waitingTime="22.00" waitingCount="3" stopTime="0.00" timeLoss="41.60" rerouteNo="1" devices="tripinfo_f7.2 routing_f7.2" vType="car" speedFactor="1.03" vaporized=""/>
    <tripinfo id="f17.2" depart="139.00" departLane="567060342#0_0" departPos="5.10" departSpeed="0.00" departDelay="0.54" arrival="229.00" arrivalLane="337277984#0_0" arrivalPos="108.85" arrivalSpeed="9.28" duration="90.00" routeLength="320.63" waitingTime="31.00" waitingCount="2" stopTime="0.00" timeLoss="48.86" rerouteNo="1" devices="tripinfo_f17.2 routing_f17.2" vType="car" speedFactor="0.85" vaporized=""/>
    <tripinfo id="f11.2" depart="153.00" departLane="49217102_0" departPos="5.10" departSpeed="0.00" departDelay="14.54" arrival="232.00" arrivalLane="337277984#0_1" arrivalPos="108.85" arrivalSpeed="11.12" duration="79.00" routeLength="425.04" waitingTime="11.00" waitingCount="3" stopTime="0.00" timeLoss="32.61" rerouteNo="1" devices="tripinfo_f11.2 routing_f11.2" vType="car" speedFactor="1.04" vaporized=""/>
    <tripinfo id="f5.2" depart="149.00" departLane="40668087#1_0" departPos="5.10" departSpeed="0.00" departDelay="10.54" arrival="235.00" arrivalLane="337277984#0_0" arrivalPos="108.85" arrivalSpeed="12.11" duration="86.00" routeLength="516.40" waitingTime="3.00" waitingCount="1" stopTime="0.00" timeLoss="31.74" rerouteNo="1" devices="tripinfo_f5.2 routing_f5.2" vType="car" speedFactor="1.10" vaporized=""/>
    <tripinfo id="f18.2" depart="144.00" departLane="567060342#0_0" departPos="5.10" departSpeed="0.00" departDelay="5.54" arrival="239.00" arrivalLane="542428845#0_0" arrivalPos="103.93" arrivalSpeed="9.32" duration="95.00" routeLength="419.50" waitingTime="28.00" waitingCount="2" stopTime="0.00" timeLoss="51.35" rerouteNo="1" devices="tripinfo_f18.2 routing_f18.2" vType="car" speedFactor="1.17" vaporized=""/>
    <tripinfo id="f8.3" depart="208.00" departLane="49217102_0" departPos="5.10" departSpeed="0.00" departDelay="0.31" arrival="254.00" arrivalLane="337277951#3_0" arrivalPos="38.80" arrivalSpeed="8.31" duration="46.00" routeLength="203.36" waitingTime="10.00" waitingCount="1" stopTime="0.00" timeLoss="21.77" rerouteNo="1" devices="tripinfo_f8.3 routing_f8.3" vType="car" speedFactor="1.02" vaporized=""/>
    <tripinfo id="f16.2" depart="154.00" departLane="42143912#5_0" departPos="5.10" departSpeed="0.00" departDelay="15.54" arrival="262.00" arrivalLane="337277973#1_1" arrivalPos="76.89" arrivalSpeed="4.88" duration="108.00" routeLength="434.70" waitingTime="20.00" waitingCount="1" stopTime="0.00" timeLoss="45.61" rerouteNo="1" devices="tripinfo_f16.2 routing_f16.2" vType="car" speedFactor="0.85" vaporized=""/>
    <tripinfo id="f6.3" depart="222.00" departLane="40668087#1_0" departPos="5.10" departSpeed="0.00" departDelay="14.31" arrival="263.00" arrivalLane="337277970#1_0" arrivalPos="79.16" arrivalSpeed="3.64" duration="41.00" routeLength="197.31" waitingTime="4.00" waitingCount="1" stopTime="0.00" timeLoss="14.42" rerouteNo="0" devices="tripinfo_f6.3 routing_f6.3" vType="car" speedFactor="0.90" vaporized=""/>
    <tripinfo id="f14.3" depart="212.00" departLane="42143912#5_0" departPos="5.10" departSpeed="0.00" departDelay="4.31" arrival="270.00" arrivalLane="542428845#0_0" arrivalPos="103.93" arrivalSpeed="7.36" duration="58.00" routeLength="269.42" waitingTime="11.00" waitingCount="1" stopTime="0.00" timeLoss="23.04" rerouteNo="1" devices="tripinfo_f14.3 routing_f14.3" vType="car" speedFactor="0.94" vaporized=""/>
    <tripinfo id="f17.3" depart="208.00" departLane="567060342#0_0" departPos="5.10" departSpeed="0.00" departDelay="0.31" arrival="272.00" arrivalLane="337277984#0_0" arrivalPos="108.85" arrivalSpeed="10.02" duration="64.00" routeLength="320.63" waitingTime="13.00" waitingCount="1" stopTime="0.00" timeLoss="25.53" rerouteNo="1" devices="tripinfo_f17.3 routing_f17.3" vType="car" speedFactor="0.91" vaporized=""/>
    <tripinfo id="f7.3" depart="226.00" departLane="40668087#1_0" departPos="5.10" departSpeed="0.00" departDelay="18.31" arrival="273.00" arrivalLane="337277951#1_1" arrivalPos="36.28" arrivalSpeed="9.15" duration="47.00" routeLength="245.01" waitingTime="6.00" waitingCount="1" stopTime="0.00" timeLoss="20.33" rerouteNo="1" devices="tripinfo_f7.3 routing_f7.3" vType="car" speedFactor="1.14" vaporized=""/>
    <tripinfo id="f2.3" depart="208.00" departLane="40668087#1_0" departPos="5.10" departSpeed="0.00" departDelay="0.31" arrival="277.00" arrivalLane="337277957#0_0" arrivalPos="105.61" arrivalSpeed="9.08" duration="69.00" routeLength="318.06" waitingTime="14.00" waitingCount="2" stopTime="0.00" timeLoss="33.99" rerouteNo="1" devices="tripinfo_f2.3 routing_f2.3" vType="car" speedFactor="1.10" vaporized=""/>
    <tripinfo id="f19.2" depart="149.00" departLane="567060342#0_0" departPos="5.10" departSpeed="0.00" departDelay="10.54" arrival="283.00" arrivalLane="337277957#0_0" arrivalPos="105.61" arrivalSpeed="8.27" duration="134.00" routeLength="512.48" waitingTime="44.00" waitingCount="3" stopTime="0.00" timeLoss="73.20" rerouteNo="1" devices="tripinfo_f19.2 routing_f19.2" vType="car" speedFactor="1.02" vaporized=""/>
    <tripinfo id="f13.3" depart="208.00" departLane="42143912#5_0" departPos="5.10" departSpeed="0.00" departDelay="0.31" arrival="286.00" arrivalLane="337277957#0_0" arrivalPos="105.61" arrivalSpeed="8.05" duration="78.00" routeLength="362.40" waitingTime="14.00" waitingCount="2" stopTime="0.00" timeLoss="33.17" rerouteNo="1" devices="tripinfo_f13.3 routing_f13.3" vType="car" speedFactor="0.99" vaporized=""/>
    <tripinfo id="f1.1" depart="240.00" departLane="40668087#1_0" departPos="5.10" departSpeed="0.00" departDelay="0.00" arrival="291.00" arrivalLane="542428845#0_0" arrivalPos="103.93" arrivalSpeed="8.07" duration="51.00" routeLength="216.25" waitingTime="12.00" waitingCount="1" stopTime="0.00" timeLoss="24.84" rerouteNo="0" devices="tripinfo_f1.1 routing_f1.1" vType="car" speedFactor="1.02" vaporized=""/>
    <tripinfo id="f10.3" depart="217.00" departLane="49217102_0" departPos="5.10" departSpeed="0.00" departDelay="9.31" arrival="299.00" arrivalLane="337277973#1_0" arrivalPos="76.89" arrivalSpeed="3.41" duration="82.00" routeLength="299.00" waitingTime="23.00" waitingCount="3" stopTime="0.00" timeLoss="48.37" rerouteNo="1" devices="tripinfo_f10.3 routing_f10.3" vType="car" speedFactor="1.08" vaporized=""/>
    <tripinfo id="f9.3" depart="212.00" departLane="49217102_0" departPos="5.10" departSpeed="0.00" departDelay="4.31" arrival="300.00" arrivalLane="1053072563_0" arrivalPos="107.94" arrivalSpeed="7.93" duration="88.00" routeLength="331.15" waitingTime="26.00" waitingCount="2" stopTime="0.00" timeLoss="46.26" rerouteNo="1" devices="tripinfo_f9.3 routing_f9.3" vType="car" speedFactor="0.97" vaporized=""/>
    <tripinfo id="f15.3" depart="216.00" departLane="42143912#5_0" departPos="5.10" departSpeed="0.00" departDelay="8.31" arrival="305.00" arrivalLane="1053072563_0" arrivalPos="107.94" arrivalSpeed="7.07" duration="89.00" routeLength="466.85" waitingTime="8.00" waitingCount="1" stopTime="0.00" timeLoss="24.89" rerouteNo="1" devices="tripinfo_f15.3 routing_f15.3" vType="car" speedFactor="0.88" vaporized=""/>
    <tripinfo id="f4.3" depart="213.00" departLane="40668087#1_0" departPos="5.10" departSpeed="0.00" departDelay="5.31" arrival="306.00" arrivalLane="337277973#1_1" arrivalPos="76.89" arrivalSpeed="5.81" duration="93.00" routeLength="390.36" waitingTime="15.00" waitingCount="2" stopTime="0.00" timeLoss="45.68" rerouteNo="1" devices="tripinfo_f4.3 routing_f4.3" vType="car" speedFactor="1.00" vaporized=""/>
    <tripinfo id="f8.4" depart="277.00" departLane="49217102_0" departPos="5.10" departSpeed="0.00" departDelay="0.08" arrival="308.00" arrivalLane="337277951#3_0" arrivalPos="38.80" arrivalSpeed="7.84" duration="31.00" routeLength="203.36" waitingTime="0.00" waitingCount="0" stopTime="0.00" timeLoss="5.42" rerouteNo="1" devices="tripinfo_f8.4 routing_f8.4" vType="car" speedFactor="0.98" vaporized=""/>
    <tripinfo id="f16.3" depart="221.00" departLane="42143912#5_0" departPos="5.10" departSpeed="0.00" departDelay="13.31" arrival="310.00" arrivalLane="337277973#1_1" arrivalPos="76.89" arrivalSpeed="7.39" duration="89.00" routeLength="434.70" waitingTime="7.00" waitingCount="1" stopTime="0.00" timeLoss="30.16" rerouteNo="1" devices="tripinfo_f16.3 routing_f16.3" vType="car" speedFactor="0.91" vaporized=""/>
    <tripinfo id="f18.3" depart="212.00" departLane="567060342#0_0" departPos="5.10" departSpeed="0.00" departDelay="4.31" arrival="311.00" arrivalLane="542428845#0_0" arrivalPos="103.93" arrivalSpeed="8.46" duration="99.00" routeLength="419.50" waitingTime="29.00" waitingCount="3" stopTime="0.00" timeLoss="49.82" rerouteNo="1" devices="tripinfo_f18.3 routing_f18.3" vType="car" speedFactor="1.04" vaporized=""/>
    <tripinfo id="f12.2" depart="158.00" departLane="49217102_0" departPos="5.10" departSpeed="0.00" departDelay="19.54" arrival="313.00" arrivalLane="542428845#0_0" arrivalPos="103.93" arrivalSpeed="8.72" duration="155.00" routeLength="523.91" waitingTime="59.00" waitingCount="4" stopTime="0.00" timeLoss="96.39" rerouteNo="1" devices="tripinfo_f12.2 routing_f12.2" vType="car" speedFactor="1.09" vaporized=""/>
    <tripinfo id="f11.3" depart="222.00" departLane="49217102_0" departPos="5.10" departSpeed="0.00" departDelay="14.31" arrival="315.00" arrivalLane="337277984#0_0" arrivalPos="108.85" arrivalSpeed="12.22" duration="93.00" routeLength="425.04" waitingTime="18.00" waitingCount="2" stopTime="0.00" timeLoss="50.28" rerouteNo="1" devices="tripinfo_f11.3 routing_f11.3" vType="car" speedFactor="1.12" vaporized=""/>